Variables = "Proc" "fcn calls" "tcpu (min)" "EP obj (J/K)" "sigTot_Rxn (J/K)" "sigTot_H2O (J/K)" "sigTot_Part (J/K)" "sigTot (J/K)" "sigTot_Rxn (%)" "sigTot_H2O (%)" "sigTot_Part (%)"
Zone T = "Optimization time = 1.543 (hr)"
61. 253. .11 13832132. 325872. 210376. 13295884. 13832132. 2. 2. 96.
82. 272. .10 18011346. 746080. 177184. 17088082. 18011346. 4. 1. 95.
48. 861. .12 19233946. 867251. 166283. 18200411. 19233946. 5. 1. 95.
59. 564. .17 19499732. 993352. 163805. 18342576. 19499732. 5. 1. 94.
16. 308. .17 19600936. 1039817. 162841. 18398278. 19600936. 5. 1. 94.
32. 535. .12 19701185. 970443. 161965. 18568777. 19701185. 5. 1. 94.
65. 591. .13 19702630. 1008683. 161937. 18532010. 19702630. 5. 1. 94.
12. 496. .12 19703938. 963870. 161942. 18578126. 19703938. 5. 1. 94.
41. 576. .13 19712923. 967546. 161852. 18583524. 19712923. 5. 1. 94.
88. 499. .13 19713253. 974290. 161842. 18577122. 19713253. 5. 1. 94.
60. 474. .13 19713416. 977395. 161843. 18574178. 19713416. 5. 1. 94.
56. 934. .13 19716303. 975873. 161821. 18578609. 19716303. 5. 1. 94.
7. 605. .13 19717105. 974538. 161815. 18580752. 19717105. 5. 1. 94.
80. 488. .13 19720510. 973399. 161784. 18585328. 19720510. 5. 1. 94.
14. 359. .13 19721533. 988549. 161776. 18571209. 19721533. 5. 1. 94.
36. 842. .12 19722772. 969108. 161755. 18591909. 19722772. 5. 1. 94.
21. 747. .13 19723184. 979494. 161748. 18581941. 19723184. 5. 1. 94.
74. 616. .13 19723421. 971751. 161754. 18589917. 19723421. 5. 1. 94.
23. 734. .13 19723902. 983081. 161744. 18579077. 19723902. 5. 1. 94.
84. 376. .13 19725367. 980531. 161736. 18583100. 19725367. 5. 1. 94.
73. 802. .13 19725638. 975829. 161731. 18588078. 19725638. 5. 1. 94.
77. 388. .13 19727166. 975061. 161713. 18590392. 19727166. 5. 1. 94.
37. 442. .13 19727599. 974713. 161710. 18591177. 19727599. 5. 1. 94.
13. 583. .12 19728080. 972971. 161717. 18593392. 19728080. 5. 1. 94.
83. 663. .13 19728339. 986812. 161707. 18579819. 19728339. 5. 1. 94.
24. 864. .13 19728662. 976988. 161706. 18589969. 19728662. 5. 1. 94.
70. 630. .13 19730479. 979704. 161682. 18589093. 19730479. 5. 1. 94.
30. 626. .13 19730775. 973332. 161692. 18595751. 19730775. 5. 1. 94.
46. 255. .13 19730898. 976259. 161691. 18592948. 19730898. 5. 1. 94.
69. 292. .13 19731251. 989588. 161683. 18579979. 19731251. 5. 1. 94.
72. 395. .13 19731625. 987271. 161671. 18582683. 19731625. 5. 1. 94.
51. 424. .13 19731971. 986561. 161668. 18583742. 19731971. 5. 1. 94.
11. 971. .13 19732041. 983082. 161670. 18587288. 19732041. 5. 1. 94.
31. 419. .13 19732267. 973992. 161675. 18596600. 19732267. 5. 1. 94.
49. 936. .13 19732285. 975485. 161667. 18595133. 19732285. 5. 1. 94.
28. 777. .13 19732593. 978509. 161660. 18592423. 19732593. 5. 1. 94.
0. 806. .13 19732781. 984168. 161663. 18586949. 19732781. 5. 1. 94.
54. 334. .13 19733078. 981519. 161662. 18589898. 19733078. 5. 1. 94.
6. 431. .13 19733422. 971894. 161657. 18599871. 19733422. 5. 1. 94.
86. 500. .13 19733429. 976609. 161664. 18595156. 19733429. 5. 1. 94.
57. 958. .13 19733712. 970250. 161657. 18601806. 19733712. 5. 1. 94.
44. 341. .13 19733728. 964802. 161657. 18607268. 19733728. 5. 1. 94.
42. 443. .13 19733905. 976460. 161651. 18595794. 19733905. 5. 1. 94.
9. 442. .13 19733962. 980994. 161648. 18591320. 19733962. 5. 1. 94.
4. 376. .13 19733979. 984876. 161651. 18587452. 19733979. 5. 1. 94.
45. 444. .13 19734218. 984726. 161643. 18587849. 19734218. 5. 1. 94.
18. 570. .13 19734249. 974787. 161653. 18597809. 19734249. 5. 1. 94.
34. 316. .13 19734441. 976563. 161642. 18596237. 19734441. 5. 1. 94.
85. 297. .13 19734548. 968003. 161655. 18604890. 19734548. 5. 1. 94.
78. 199. .13 19734577. 969859. 161648. 18603070. 19734577. 5. 1. 94.
22. 325. .13 19734594. 969999. 161646. 18602949. 19734594. 5. 1. 94.
17. 409. .13 19734604. 977435. 161640. 18595530. 19734604. 5. 1. 94.
8. 728. .13 19734621. 980679. 161644. 18592298. 19734621. 5. 1. 94.
50. 638. .13 19734627. 975369. 161651. 18597607. 19734627. 5. 1. 94.
39. 400. .13 19734658. 971472. 161645. 18601541. 19734658. 5. 1. 94.
35. 413. .13 19734700. 974505. 161650. 18598546. 19734700. 5. 1. 94.
71. 387. .13 19734717. 986706. 161643. 18586368. 19734717. 5. 1. 94.
67. 463. .13 19734733. 974081. 161638. 18599014. 19734733. 5. 1. 94.
15. 411. .13 19734761. 978096. 161642. 18595023. 19734761. 5. 1. 94.
87. 342. .13 19734843. 980948. 161639. 18592256. 19734843. 5. 1. 94.
33. 378. .12 19734861. 969865. 161652. 18603345. 19734861. 5. 1. 94.
26. 464. .13 19734870. 981493. 161647. 18591730. 19734870. 5. 1. 94.
53. 392. .13 19734881. 983890. 161639. 18589352. 19734881. 5. 1. 94.
38. 429. .13 19734894. 982428. 161646. 18590820. 19734894. 5. 1. 94.
3. 457. .13 19734914. 978866. 161644. 18594405. 19734914. 5. 1. 94.
1. 870. .13 19734962. 981204. 161640. 18592118. 19734962. 5. 1. 94.
62. 502. .13 19735057. 983088. 161639. 18590330. 19735057. 5. 1. 94.
55. 377. .13 19735116. 978746. 161645. 18594725. 19735116. 5. 1. 94.
47. 441. .13 19735146. 983847. 161641. 18589658. 19735146. 5. 1. 94.
63. 523. .13 19735150. 971841. 161647. 18601662. 19735150. 5. 1. 94.
64. 535. .13 19735191. 977743. 161641. 18595808. 19735191. 5. 1. 94.
5. 493. .13 19735214. 977296. 161639. 18596279. 19735214. 5. 1. 94.
58. 385. .13 19735221. 973250. 161637. 18600333. 19735221. 5. 1. 94.
40. 352. .13 19735282. 985937. 161639. 18587706. 19735282. 5. 1. 94.
68. 212. .13 19735316. 973537. 161642. 18600137. 19735316. 5. 1. 94.
66. 628. .13 19735350. 980324. 161639. 18593386. 19735350. 5. 1. 94.
25. 556. .13 19735359. 968132. 161648. 18605579. 19735359. 5. 1. 94.
79. 287. .13 19735372. 975394. 161638. 18598340. 19735372. 5. 1. 94.
43. 412. .12 19735447. 978119. 161638. 18595691. 19735447. 5. 1. 94.
19. 334. .13 19735471. 973826. 161640. 18600005. 19735471. 5. 1. 94.
27. 421. .13 19735482. 974346. 161644. 18599491. 19735482. 5. 1. 94.
2. 379. .13 19735503. 979244. 161638. 18594620. 19735503. 5. 1. 94.
75. 498. .13 19735540. 979277. 161638. 18594626. 19735540. 5. 1. 94.
29. 484. .13 19735589. 979450. 161638. 18594501. 19735589. 5. 1. 94.
89. 750. .13 19735616. 980150. 161638. 18593828. 19735616. 5. 1. 94.
20. 405. .13 19735732. 977255. 161634. 18596843. 19735732. 5. 1. 94.
76. 475. .12 19735755. 971873. 161637. 18602245. 19735755. 5. 1. 94.
52. 729. .13 19735781. 978110. 161639. 18596033. 19735781. 5. 1. 94.
10. 518. .13 19735831. 978379. 161635. 18595816. 19735831. 5. 1. 94.
81. 751. .13 19735851. 978723. 161638. 18595491. 19735851. 5. 1. 94.
